version 2
run General-0-20160113-21:38:44-2976
attr configname General
attr datetime 20160113-21:38:44
attr experiment General
attr inifile omnetpp.ini
attr iterationvars ""
attr iterationvars2 $repetition=0
attr measurement ""
attr network P2P_Wireless_Wifi
attr processid 2976
attr repetition 0
attr replication #0
attr resultdir results
attr runnumber 0
attr seedset 0

vector 8  P2P_Wireless_Wifi.node[0].batteryStats  capacity  ETV
attr unit  mW-s
vector 15  P2P_Wireless_Wifi.node[1].batteryStats  capacity  ETV
attr unit  mW-s
vector 22  P2P_Wireless_Wifi.node[2].batteryStats  capacity  ETV
attr unit  mW-s
vector 3  P2P_Wireless_Wifi.node[1].appl  latency:vector  ETV
attr interpolationmode  none
attr source  reply
attr title  "laytency, vector"
vector 5  P2P_Wireless_Wifi.node[2].appl  latency:vector  ETV
attr interpolationmode  none
attr source  reply
attr title  "laytency, vector"
vector 1  P2P_Wireless_Wifi.node[0].appl  latency:vector  ETV
attr interpolationmode  none
attr source  reply
attr title  "laytency, vector"
vector 0  P2P_Wireless_Wifi.node[0].appl  processingTime:vector  ETV
attr interpolationmode  none
attr source  finish
attr title  "query processing time, vector"
0	216	0.572749758255	0.005620001
0	387	0.578141758255	0.011012001
0	839	6.816314690871	0.009712
0	1263	9.606007540345	0.009772
0	1697	12.159889208698	0.011512001
0	2159	17.352468323169	0.010572001
0	2560	17.40392137979	0.010972001
0	2807	18.179985820332	0.006500001
0	2977	18.186677820332	0.013192001
0	3372	18.287942141242	0.010292001
0	3774	18.362089161913	0.010352001
0	4081	24.995239380249	0.005860001
0	4260	25.000871380249	0.011492001
0	4488	25.600793169274	0.005760001
0	4663	25.605965169274	0.010932001
0	4899	26.071005506202	0.005840001
0	5071	26.075837506202	0.010672001
0	5467	26.437954626889	0.011412001
0	5710	27.610256396618	0.005820001
0	5880	27.615288396618	0.010852001
0	6106	27.814643949207	0.005480001
0	6279	27.819495949207	0.010332001
0	6692	29.417518340704	0.011412001
0	6929	29.780789007672	0.005960001
0	7092	29.786741007672	0.011912001
0	7501	30.130342555995	0.011072001
0	7902	30.480100644841	0.001533042176
0	8267	30.490330644841	0.011763042176
0	8682	31.679059781443	0.010972001
0	9092	32.149610842944	0.010692001
0	9505	33.917610389325	0.011292001
0	9916	34.401738678276	0.010652001
0	10321	34.934825493268	0.010772001
0	10735	35.798310655771	0.010252001
0	10945	35.875868704543	0.00524
0	11109	35.880620704543	0.009992
0	11521	36.376441727648	0.010832001
0	11921	37.282857777326	0.009592
0	12310	38.234802228727	0.009692
0	12720	39.028604415239	0.010792001
0	12957	39.142027013422	0.006040001
0	13127	39.149319013422	0.013332001
0	13351	39.361878521141	0.006080001
0	13519	39.366570521141	0.010772001
0	13922	39.444020333586	0.002911875545
0	14317	39.455810334586	0.014701876545
0	14702	39.712609323334	0.009992
0	14926	39.734555003376	0.006000001
0	15101	39.739367003376	0.010812001
0	15329	39.872599293043	0.005980001
0	15502	39.877371293043	0.010752001
0	15727	39.933053938267	0.006000001
0	15900	39.938005938267	0.010952001
0	16128	39.974429506299	0.005880001
0	16299	39.979521506299	0.010972001
0	16540	40.545958793535	0.005800001
0	16714	40.551190793535	0.011032001
0	16939	40.708399913677	0.005680001
0	17110	40.713771913677	0.011052001
0	17515	41.473429869865	0.010832001
0	17755	42.264118452998	0.006100001
0	17926	42.269110452998	0.011092001
0	18156	42.828161667805	0.006040001
0	18330	42.833473667805	0.011352001
0	18564	43.402030306072	0.005900001
0	18738	43.406982306072	0.010852001
0	18959	43.705730382854	0.006060001
0	19133	43.710882382854	0.011212001
0	19349	44.005544772944	0.00494
0	19519	44.010976772944	0.010372
0	19746	44.587281972299	0.006040001
0	19916	44.592573972299	0.011332001
0	20123	44.748169785387	0.00522
0	20293	44.753621785387	0.010672
0	20501	44.897109812014	0.00484
0	20672	44.902621812014	0.010352
0	20882	44.987933924614	0.00492
0	21057	44.992885924614	0.009872
0	21452	45.210900730374	0.009352
0	21681	45.219067463638	0.005500001
0	21848	45.224139463638	0.010572001
0	22240	45.281996236322	0.010732001
0	22449	45.473238489927	0.00496
0	22620	45.478170489927	0.009892
0	23006	45.57869958531	0.009992
0	23238	45.595386617884	0.005920001
0	23413	45.600458617884	0.010992001
0	24567	45.634741427714	0.027151983796
0	25002	45.700228742666	0.013332003
0	25396	45.92322729541	0.010772001
0	25623	45.999579594606	0.006360001
0	25802	46.004111594606	0.010892001
0	26033	46.07178346404	0.005940001
0	26209	46.07633546404	0.010492001
0	26419	46.254692858	0.00526
0	26592	46.259884858	0.010452
0	26799	46.322991351825	0.0053
0	26974	46.327963351825	0.010272
0	27365	46.424837773927	0.010512001
0	27767	46.44822605898	0.011252001
0	28154	46.965773950118	0.009572
0	28384	46.977402596369	0.006400001
0	28558	46.982234596369	0.011232001
0	28798	47.249792716517	0.006000001
0	28969	47.254864716517	0.000371350487
0	29332	47.265114716517	0.010621350487
0	29731	47.572808052109	0.011652001
0	30134	47.840207904568	0.010592001
0	30548	48.015629918581	0.011192001
0	30950	48.231502837821	0.010872001
0	31163	48.329826601247	0.00518
0	31335	48.334838601247	0.010192
0	31563	48.36811122777	0.005780001
0	31734	48.37284322777	0.010512001
0	31965	48.458986095993	0.006180001
0	32140	48.463918095993	0.011112001
0	32367	48.682465825134	0.006040001
0	32539	48.687577825134	0.011152001
0	33317	48.870258984543	0.01964918693
0	33554	49.259534220851	0.005960001
0	33724	49.264666220851	0.011092001
0	34116	49.526073199059	0.010912001
0	34521	49.563904819977	0.010492001
0	34753	49.712193548828	0.006180001
0	34924	49.717365548828	0.011352001
0	35152	49.96147369293	0.005680001
0	35323	49.96632569293	0.010532001
0	35560	50.433602316748	0.005860001
0	35731	50.438774316748	0.011032001
0	36133	50.475877941356	0.011372001
0	36368	50.567471963097	0.006020001
0	36542	50.572583963097	0.011132001
0	36949	51.119643023348	0.011112001
0	37177	51.148159296823	0.005860001
0	37347	51.153491296823	0.011192001
0	37572	51.248966624166	0.005640001
0	37745	51.253838624166	0.010512001
0	38148	51.348032958846	0.011132001
0	38374	51.393022653634	0.005920001
0	38549	51.397794653634	0.010692001
0	38962	51.77341295603	0.003242982088
0	39364	51.78512295703	0.014952983088
0	39765	51.903535103106	0.011392001
0	40147	51.937547573001	0.010092
0	40542	51.999921940506	0.010692001
0	40779	52.238713088252	0.005960001
0	40954	52.243625088252	0.010872001
0	41181	52.263754130163	0.006080001
0	41352	52.268606130163	0.010932001
0	41774	52.299202587904	0.002471330772
0	42143	52.309452587904	0.012721330772
0	42541	52.443445322725	0.004809312593
0	42907	52.453635322725	0.014999312593
0	43139	52.489820812207	0.005700001
0	43310	52.494632812207	0.010512001
0	43542	52.554247796146	0.005640001
0	43713	52.559379796146	0.010772001
0	43942	52.692134800943	0.005920001
0	44112	52.697186800943	0.010972001
0	44346	53.129342663044	0.005960001
0	44513	53.134654663044	0.011272001
0	44913	53.282300971059	0.010452001
0	45313	53.297365719973	0.011272001
0	45716	53.33942760788	0.011472001
0	45944	53.448903048068	0.006060001
0	46115	53.454175048068	0.011332001
0	46345	53.743278552565	0.005820001
0	46515	53.748770552565	0.011312001
0	46739	53.842681054308	0.006320001
0	46908	53.847633054308	0.011272001
0	47309	53.969501268322	0.010572001
0	47711	54.022140181518	0.011412001
0	48103	54.147343274078	0.011172001
0	48331	54.238062514325	0.005820001
0	48501	54.242954514325	0.010712001
0	48904	54.261469792263	0.010872001
0	49303	54.338014658243	0.011152001
0	49531	54.364199608852	0.006040001
0	49698	54.369691608852	0.011532001
0	50091	54.433995953079	0.010392001
0	50497	54.518213515302	0.010692001
0	50728	54.996521176048	0.005760001
0	51106	55.007231176048	0.007370367428
0	51281	55.011763176048	0.011902367428
0	51508	55.268603988245	0.005760001
0	51675	55.274335988245	0.011492001
0	52073	55.421305700977	0.010872001
0	52482	55.71175694769	0.010952001
0	52714	55.762597557706	0.005980001
0	52884	55.767769557706	0.011152001
0	53114	55.878128266453	0.006400001
0	53285	55.882900266453	0.011172001
0	53512	55.971945951854	0.006140001
0	53682	55.976997951854	0.011192001
0	53911	56.01855098945	0.005920001
0	54082	56.02344298945	0.010812001
0	54484	56.084427803557	0.010632001
0	54882	56.119861209212	0.010852001
0	55279	56.153827415971	0.011072001
0	55511	56.190438146726	0.005700001
0	55681	56.195750146726	0.011012001
0	56080	56.434950397098	0.011352001
0	56486	56.470888409163	0.010292001
0	56720	56.504844468129	0.005920001
0	56887	56.509896468129	0.010972001
0	57288	56.523853190266	0.000431327162
0	57513	56.530331191266	0.006909328162
0	57683	56.535463191266	0.012041328162
0	58080	56.635555861135	0.010992001
0	58309	56.651157258821	0.006200001
0	58480	56.655669258821	0.010712001
0	58710	56.72890672487	0.006200001
0	58887	56.73345872487	0.002298632919
0	59116	56.74001672587	0.001413943653
0	59681	56.75625872687	0.017655944653
0	59908	56.773714705324	0.005800001
0	60079	56.778866705324	0.010952001
0	60477	56.836911268724	0.011192001
0	60874	56.870351128306	0.011232001
0	61273	56.999276248043	0.010952001
0	61512	57.018415883202	0.006140001
0	61676	57.023087883202	0.010812001
0	61904	57.030792178143	0.006000001
0	62079	57.035844178143	0.011052001
0	62483	57.141521016921	0.010672001
0	62881	57.2006824623	0.010752001
0	63109	57.220220127487	0.006060001
0	63284	57.224792127487	0.010632001
0	63512	57.233343084279	0.005520001
0	63679	57.238835084279	0.011012001
0	63903	57.249275632467	0.006040001
0	64070	57.254107632467	0.010872001
0	64295	57.328634591755	0.005920001
0	64468	57.333266591755	0.010552001
0	64871	57.347258547075	0.010532001
0	65272	57.425220061438	0.011152001
0	65672	57.562181621674	0.010892001
0	65912	58.299799421776	0.006080001
0	66084	58.304871421776	0.011152001
0	66485	58.335396120161	0.010832001
0	66886	58.362062890834	0.010452001
0	67117	58.465404391384	0.005760001
0	67291	58.469896391384	0.010252001
0	67517	58.526581122731	0.005980001
0	67684	58.531653122731	0.011052001
0	68078	58.677748931818	0.011212001
0	68472	58.691747930475	0.010772001
0	68699	58.797771869122	0.005980001
0	68870	58.802363869122	0.010572001
0	69095	58.817093148114	0.005880001
0	69271	58.821745148114	0.010532001
0	69669	58.872742632759	0.010792001
0	70067	58.902440594188	0.010512001
0	70295	58.931180381506	0.005880001
0	70463	58.935912381506	0.010612001
0	70690	58.953658070992	0.006080001
0	70860	58.958770070992	0.011192001
0	71085	58.975436746989	0.006040001
0	71257	58.980388746989	0.010992001
0	71488	59.229552543133	0.005440001
0	71659	59.235324543133	0.011212001
0	72054	59.34775200375	0.010932001
0	72267	59.591418754694	0.00512
0	72438	59.596530754694	0.010232
0	72837	59.665189629847	0.011032001
0	73238	59.737073039338	0.010892001
0	73640	59.792393033712	0.010272001
0	73870	59.918058783127	0.002712036973
0	74415	59.933180783127	0.017834036973
0	74815	59.949117245932	0.001124346292
0	75015	59.954435245932	0.006442346292
0	75186	59.958827245932	0.010834346292
0	75451	60.017127557476	0.007580002
0	75622	60.022679557476	0.013132002
0	75844	60.10061168386	0.006040001
0	76015	60.10554368386	0.010972001
0	76412	60.151923571085	0.010772001
0	76811	60.314086529754	0.010692001
0	77584	60.355349641463	0.021046470538
0	77988	60.527156814917	0.010732001
0	78382	60.606539708291	0.010912001
0	78779	60.646113059515	0.011172001
0	79182	60.69926708547	0.010592001
0	79412	60.84490218913	0.006180001
0	79584	60.84997418913	0.011252001
0	79810	60.979623877155	0.006000001
0	79980	60.984595877155	0.010972001
0	80213	61.004658918427	0.006340001
0	80387	61.009270918427	0.010952001
0	80618	61.073184485078	0.005860001
0	80789	61.078256485078	0.010932001
0	81564	61.172482875764	0.018142184502
0	81960	61.203617764495	0.011172001
0	82188	61.220553747532	0.005660001
0	82359	61.225725747532	0.010832001
0	82756	61.271669640179	0.011512001
0	82983	61.403358802136	0.006300001
0	83154	61.407930802136	0.010872001
0	83558	61.67019634926	0.011312001
0	83786	61.709120135543	0.005900001
0	83956	61.714312135543	0.011092001
0	84164	61.774431311661	0.00528
0	84339	61.779563311661	0.010412
0	84567	61.814127768416	0.006080001
0	84744	61.819239768416	0.000150794932
0	85116	61.829669768416	0.010580794932
0	85520	61.916241894172	0.004749876851
0	85912	61.927991895172	0.016499877851
0	86711	61.984683098344	0.022533466775
0	87121	62.108047648706	0.010712001
0	87542	62.129162977377	0.012252002
0	87773	62.934121959553	0.006320001
0	87946	62.939013959553	0.011212001
0	88165	63.101425737712	0.00526
0	88336	63.106337737712	0.010172
0	88543	63.12320658534	0.0051
0	89085	63.13826858534	0.014757561188
0	89485	63.16300034592	0.010712001
0	89888	63.386689126348	0.010752001
0	90659	63.457319298373	0.019041086063
0	90890	63.506025723002	0.005760001
0	91061	63.510897723002	0.010632001
0	91289	63.534974780404	0.006100001
0	91456	63.540166780404	0.011292001
0	91824	63.550829287701	0.009992
0	92445	63.60348009576	0.012991452851
0	92619	63.60839209576	0.017903452851
0	92845	63.621673689842	0.005820001
0	93015	63.626925689842	0.011072001
0	93406	63.6799966641	0.011932001
0	93633	63.699449930834	0.006280001
0	93800	63.704521930834	0.011352001
0	94008	63.887375838903	0.00518
0	94180	63.892507838903	0.010312
0	94408	63.957469360362	0.005660001
0	94972	63.974291361362	0.015491639383
0	95206	64.128433733701	0.005520001
0	95377	64.133385733701	0.010472001
0	95604	64.140677224589	0.006080001
0	95778	64.145609224589	0.011012001
0	96007	64.154655977943	0.005740001
0	96178	64.159687977943	0.010772001
0	96406	64.230091726166	0.005820001
0	96580	64.235183726166	0.010912001
0	96805	64.298938799794	0.005960001
0	96981	64.303690799794	0.010712001
0	97378	64.393019020609	0.010812001
0	97606	64.439927348096	0.005900001
0	97781	64.444859348096	0.010832001
0	98000	64.516868700817	0.005720001
0	98167	64.522000700817	0.010852001
0	98564	64.551873141136	0.011332001
0	98789	64.704023235641	0.005500001
0	98961	64.709055235641	0.010532001
0	99187	64.852958700551	0.005860001
0	99362	64.857890700551	0.010792001
0	99591	64.946193603455	0.005500001
0	99762	64.951425603455	0.010732001
0	100163	64.972987950538	0.010732001
0	100400	65.111149066248	0.005420001
0	100567	65.116661066248	0.010932001
0	100792	65.17037446363	0.006120001
0	100965	65.17510646363	0.010852001
0	101176	65.224443558718	0.00508
0	101348	65.229395558718	0.010032
0	101579	65.536771965544	0.005760001
0	101753	65.541383965544	0.010372001
0	102157	65.574019566453	0.011312001
0	102958	65.615378655549	0.018784317024
0	103183	65.779711491069	0.005680001
0	103356	65.784603491069	0.010572001
0	103585	65.80388258178	0.005940001
0	103755	65.80905458178	0.011112001
0	104150	65.90999556193	0.011412001
0	104594	66.136240218883	0.009787410067
0	104925	66.147504218883	0.021051410067
0	105149	66.175483640576	0.005820001
0	105323	66.180435640576	0.010772001
0	105552	66.193421983495	0.005900001
0	105722	66.198893983495	0.011372001
0	105947	66.329529205398	0.005680001
0	106121	66.334401205398	0.010552001
0	106348	66.531934000158	0.005680001
0	106515	66.537566000158	0.011312001
0	106740	66.570111923604	0.006240001
0	106911	66.574883923604	0.011012001
0	107133	66.679289562808	0.005820001
0	107304	66.684341562808	0.010872001
0	107701	66.972254435299	0.011472001
0	108109	67.216808553813	0.010772001
0	108333	67.30653657551	0.006020001
0	108873	67.32159857551	0.014340597239
0	109103	67.362407477761	0.006060001
0	109277	67.367059477761	0.010712001
0	109682	67.551457676968	0.006396611973
0	110050	67.561587676968	0.016526611973
0	110442	67.762509327457	0.010852001
0	110669	67.839112607561	0.006080001
0	110833	67.843924607561	0.010892001
0	111231	67.90880233135	0.010552001
0	111630	67.956620492927	0.010392001
0	111871	68.073776252045	0.005560001
0	112046	68.078888252045	0.010672001
0	112256	68.103530673116	0.0052
0	112423	68.108542673116	0.010212
0	112820	68.209235987724	0.011332001
0	113048	68.258281342179	0.006020001
0	113219	68.263333342179	0.011072001
0	113989	68.431976105256	0.020411331882
0	114221	68.475645887261	0.006040001
0	114392	68.480397887261	0.010792001
0	114798	68.538402169082	0.011092001
0	115200	68.731188478599	0.010992001
0	115616	69.577285962557	0.011332001
0	115854	70.48884637114	0.005680001
0	116028	70.49433837114	0.011172001
0	116430	70.638371088789	0.011172001
1	102	0.569861758255	0.002086001
1	273	0.575133758255	0.007358001
1	552	6.808434690871	0.001186
1	611	6.809918690871	0.00267
1	971	9.598067540345	0.001186
1	1089	9.601175540345	0.004294
1	1409	12.151529208698	0.002506001
1	1469	12.153213208698	0.004190001
1	1868	17.344408323169	0.001866001
1	1927	17.345992323169	0.003450001
1	2270	17.39578137979	0.002186001
1	2329	17.39754537979	0.003950001
1	2682	18.176737820332	0.002606001
1	2864	18.183509820332	0.009378001
1	3085	18.280122141242	0.001826001
1	3144	18.281646141242	0.003350001
1	3486	18.354249161913	0.001866001
1	3545	18.355753161913	0.003370001
1	3963	24.991931380249	0.001906001
1	4138	24.997363380249	0.007338001
1	4371	25.597605169274	0.001926001
1	4544	25.602517169274	0.006838001
1	4782	26.068037506202	0.002226001
1	4957	26.072869506202	0.007058001
1	5181	26.429954626889	0.002766001
1	5240	26.431518626889	0.004330001
1	5593	27.606888396618	0.001806001
1	5767	27.612200396618	0.007118001
1	5988	27.811655949207	0.001846001
1	6163	27.816267949207	0.006458001
1	6410	29.409558340704	0.002806001
1	6467	29.411062340704	0.004310001
1	6808	29.777741007672	0.002266001
1	6986	29.783853007672	0.008378001
1	7208	30.122362555995	0.002446001
1	7267	30.123986555995	0.004070001
1	7608	30.472020644841	0.002066001
1	7667	30.473824644841	0.003870001
1	7981	30.482470644841	0.001186
1	8040	30.484094644841	0.00281
1	8392	31.671279781443	0.002546001
1	8451	31.672743781443	0.004010001
1	8804	32.141690842944	0.002126001
1	8864	32.143494842944	0.003930001
1	9217	33.909650389325	0.002686001
1	9277	33.911134389325	0.004170001
1	9625	34.393738678276	0.002006001
1	9743	34.397106678276	0.005374001
1	10029	34.926865493268	0.002166001
1	10088	34.928429493268	0.003730001
1	10444	35.790510655771	0.001806001
1	10561	35.793678655771	0.004974001
1	10828	35.872460704543	0.001186
1	10999	35.877732704543	0.006458
1	11229	36.368301727648	0.002046001
1	11347	36.371749727648	0.005494001
1	11629	37.275097777326	0.001186
1	11747	37.278185777326	0.004274
1	12022	38.226942228727	0.001186
1	12081	38.228446228727	0.00269
1	12432	39.020644415239	0.002186001
1	12491	39.022208415239	0.003750001
1	12833	39.138579013422	0.001946001
1	13014	39.145991013422	0.009358001
1	13234	39.358670521141	0.002226001
1	13405	39.363482521141	0.007038001
1	13629	39.436320333586	0.002726001
1	13688	39.437804333586	0.004210001
1	14029	39.447690334586	0.002306001
1	14089	39.449414334586	0.004030001
1	14410	39.704449323334	0.001186
1	14528	39.707857323334	0.004594
1	14809	39.731547003376	0.002346001
1	14983	39.736159003376	0.006958001
1	15212	39.869111293043	0.001846001
1	15386	39.874143293043	0.006878001
1	15610	39.929625938267	0.001926001
1	15784	39.934617938267	0.006918001
1	16011	39.971201506299	0.002006001
1	16185	39.976333506299	0.007138001
1	16422	40.542670793535	0.001866001
1	16596	40.547722793535	0.006918001
1	16822	40.705271913677	0.001906001
1	16996	40.710483913677	0.007118001
1	17229	41.465309869865	0.002066001
1	17289	41.467153869865	0.003910001
1	17637	42.261130452998	0.002466001
1	17812	42.266002452998	0.007338001
1	18039	42.824673667805	0.001906001
1	18212	42.830005667805	0.007238001
1	18447	43.398582306072	0.001806001
1	18620	43.403734306072	0.006958001
1	18845	43.702842382854	0.002526001
1	19015	43.707594382854	0.007278001
1	19232	44.002436772944	0.001186
1	19406	44.007668772944	0.006418
1	19629	44.583973972299	0.002086001
1	19803	44.589205972299	0.007318001
1	20006	44.744781785387	0.001186
1	20180	44.750113785387	0.006518
1	20383	44.894101812014	0.001186
1	20558	44.899433812014	0.006518
1	20765	44.984845924614	0.001186
1	20938	44.989497924614	0.005838
1	21159	45.203380730374	0.001186
1	21276	45.206388730374	0.004194
1	21563	45.216139463638	0.001926001
1	21738	45.221251463638	0.007038001
1	21958	45.274176236322	0.002266001
1	22018	45.276100236322	0.004190001
1	22332	45.470110489927	0.001186
1	22506	45.475202489927	0.006278
1	22716	45.57053958531	0.001186
1	22776	45.57240358531	0.00305
1	23120	45.591958617884	0.001846001
1	23295	45.596950617884	0.006838001
1	23547	45.605667426714	0.003148
1	23606	45.607491426714	0.004972
1	23693	45.609995427714	0.005954001
1	23753	45.611639427714	0.007598001
1	24060	45.620205427714	0.001186
1	24119	45.621909427714	0.00289
1	24674	45.690028740666	0.002486001
1	24734	45.691812740666	0.004270001
1	25110	45.91500729541	0.001906001
1	25169	45.91649129541	0.003390001
1	25506	45.996171594606	0.002306001
1	25688	46.001223594606	0.007358001
1	25916	46.06831546404	0.001826001
1	26090	46.07324746404	0.006758001
1	26302	46.251264858	0.001186
1	26476	46.256476858	0.006398
1	26682	46.319523351825	0.001186
1	26856	46.324575351825	0.006238
1	27076	46.416877773927	0.001906001
1	27135	46.418781773927	0.003810001
1	27475	46.44038605898	0.002766001
1	27593	46.44343405898	0.005814001
1	27866	46.958033950118	0.001186
1	27925	46.959637950118	0.00279
1	28267	46.974014596369	0.002366001
1	28441	46.979026596369	0.007378001
1	28681	47.246404716517	0.001966001
1	28852	47.251596716517	0.007158001
1	29048	47.257334716517	0.001186
1	29108	47.258938716517	0.00279
1	29445	47.564588052109	0.002786001
1	29504	47.566092052109	0.004290001
1	29841	47.832287904568	0.002026001
1	29959	47.835535904568	0.005274001
1	30256	48.007729918581	0.002646001
1	30374	48.010777918581	0.005694001
1	30661	48.223582837821	0.002306001
1	30721	48.225506837821	0.004230001
1	31046	48.326478601247	0.001186
1	31221	48.331350601247	0.006058
1	31446	48.36494322777	0.001966001
1	31616	48.36975522777	0.006778001
1	31848	48.455518095993	0.002066001
1	32022	48.460450095993	0.006998001
1	32250	48.679457825134	0.002386001
1	32420	48.684229825134	0.007158001
1	32677	48.852654984543	0.002808
1	32795	48.855882984543	0.004614
1	32970	48.860454984543	0.010608
1	33145	48.865206984543	0.013938
1	33437	49.256506220851	0.002286001
1	33611	49.261538220851	0.007318001
1	33829	49.518253199059	0.002446001
1	33888	49.519837199059	0.004030001
1	34230	49.556024819977	0.001966001
1	34289	49.557568819977	0.003510001
1	34635	49.708785548828	0.002126001
1	34810	49.714037548828	0.007378001
1	35035	49.95832569293	0.001886001
1	35210	49.96329769293	0.006858001
1	35443	50.430174316748	0.001786001
1	35617	50.435406316748	0.007018001
1	35841	50.467977941356	0.002826001
1	35959	50.471085941356	0.005934001
1	36250	50.563963963097	0.001866001
1	36424	50.569135963097	0.007038001
1	36658	51.111563023348	0.002386001
1	36776	51.114911023348	0.005734001
1	37059	51.145011296823	0.002066001
1	37234	51.150263296823	0.007318001
1	37455	51.245898624166	0.001926001
1	37629	51.250510624166	0.006538001
1	37856	51.339912958846	0.002366001
1	37974	51.343140958846	0.005594001
1	38256	51.389814653634	0.002066001
1	38431	51.394726653634	0.006978001
1	38666	51.76549295603	0.002026001
1	38784	51.76866095603	0.005194001
1	39070	51.77704295703	0.002126001
1	39188	51.78035095703	0.005434001
1	39474	51.895495103106	0.002706001
1	39533	51.897179103106	0.004390001
1	39858	51.929287573001	0.001186
1	39972	51.932655573001	0.004554
1	40255	51.992061940506	0.002186001
1	40314	51.993625940506	0.003750001
1	40662	52.235325088252	0.001926001
1	40835	52.240437088252	0.007038001
1	41064	52.260446130163	0.002126001
1	41234	52.265218130163	0.006898001
1	41482	52.291142587904	0.005026002
1	41541	52.292846587904	0.006730002
1	41853	52.301392587904	0.001186
1	41913	52.303196587904	0.00299
1	42250	52.435325322725	0.002466001
1	42310	52.436989322725	0.004130001
1	42620	52.445555322725	0.001186
1	42679	52.447359322725	0.00299
1	43021	52.486772812207	0.002006001
1	43196	52.491684812207	0.006918001
1	43424	52.551139796146	0.001886001
1	43599	52.556391796146	0.007138001
1	43824	52.688686800943	0.001826001
1	43999	52.693878800943	0.007018001
1	44229	53.125854663044	0.001826001
1	44400	53.131166663044	0.007138001
1	44621	53.274360971059	0.001866001
1	44738	53.277828971059	0.005334001
1	45026	53.289565719973	0.002826001
1	45085	53.291149719973	0.004410001
1	45426	53.33134760788	0.002746001
1	45485	53.33295160788	0.004350001
1	45826	53.445655048068	0.002166001
1	46001	53.450747048068	0.007258001
1	46228	53.740090552565	0.001986001
1	46402	53.745302552565	0.007198001
1	46622	53.839273054308	0.002266001
1	46796	53.844225054308	0.007218001
1	47016	53.961381268322	0.001806001
1	47134	53.964769268322	0.005194001
1	47425	54.013780181518	0.002406001
1	47484	54.015364181518	0.003990001
1	47813	54.139163274078	0.002346001
1	47872	54.140987274078	0.004170001
1	48214	54.234694514325	0.001806001
1	48387	54.239746514325	0.006858001
1	48611	54.253529792263	0.002286001
1	48670	54.255333792263	0.004090001
1	49018	54.329774658243	0.002266001
1	49075	54.331358658243	0.003850001
1	49414	54.360731608852	0.001926001
1	49585	54.366183608852	0.007378001
1	49806	54.426115953079	0.001866001
1	49866	54.427979953079	0.003730001
1	50207	54.510353515302	0.002186001
1	50325	54.513481515302	0.005314001
1	50611	54.993193176048	0.001786001
1	50782	54.998685176048	0.007278001
1	50932	55.002319176048	0.001186
1	51163	55.008735176048	0.007602
1	51395	55.265535988245	0.002046001
1	51562	55.270867988245	0.007378001
1	51782	55.413305700977	0.002226001
1	51841	55.414929700977	0.003850001
1	52189	55.70387694769	0.002426001
1	52248	55.70570094769	0.004250001
1	52596	55.759289557706	0.002026001
1	52771	55.764581557706	0.007318001
1	52974	55.873560265453	0.001186
1	53171	55.879872266453	0.007498001
1	53395	55.968677951854	0.002226001
1	53569	55.973669951854	0.007218001
1	53793	56.01544298945	0.002166001
1	53968	56.02053498945	0.007258001
1	54192	56.076387803557	0.001946001
1	54251	56.078291803557	0.003850001
1	54598	56.111641209212	0.001986001
1	54658	56.113225209212	0.003570001
1	54989	56.145947415971	0.002546001
1	55048	56.147431415971	0.004030001
1	55393	56.187350146726	0.001966001
1	55568	56.192342146726	0.006958001
1	55788	56.427090397098	0.002846001
1	55847	56.428714397098	0.004470001
1	56194	56.463148409163	0.001906001
1	56253	56.464752409163	0.003510001
1	56603	56.501676468129	0.002106001
1	56774	56.506568468129	0.006998001
1	56995	56.516013190266	0.002366001
1	57113	56.519141190266	0.005494001
1	57396	56.527203191266	0.001866001
1	57570	56.532115191266	0.006778001
1	57790	56.627595861135	0.002386001
1	57849	56.629059861135	0.003850001
1	58191	56.647789258821	0.002186001
1	58366	56.652741258821	0.007138001
1	58593	56.72585872487	0.002506001
1	58766	56.73037072487	0.007018001
1	58995	56.73680872587	0.001866001
1	59197	56.74248672587	0.007544001
1	59256	56.74411072587	0.00309
1	59315	56.74559472587	0.004574
1	59791	56.770586705324	0.002026001
1	59965	56.775898705324	0.007338001
1	60189	56.828891268724	0.002526001
1	60306	56.832079268724	0.005714001
1	60584	56.862411128306	0.002646001
1	60643	56.864055128306	0.004290001
1	60984	56.991396248043	0.002426001
1	61044	56.993180248043	0.004210001
1	61395	57.014967883202	0.002046001
1	61566	57.020199883202	0.007278001
1	61786	57.027524178143	0.002086001
1	61960	57.032576178143	0.007138001
1	62190	57.133521016921	0.002026001
1	62308	57.136889016921	0.005394001
1	62591	57.1926824623	0.002106001
1	62651	57.1945664623	0.003990001
1	62991	57.217092127487	0.002286001
1	63166	57.221684127487	0.006878001
1	63398	57.230315084279	0.001846001
1	63566	57.235407084279	0.006938001
1	63786	57.245827632467	0.001946001
1	63957	57.251099632467	0.007218001
1	64177	57.325466591755	0.002106001
1	64352	57.330158591755	0.006798001
1	64579	57.339358547075	0.001986001
1	64697	57.342706547075	0.005334001
1	64984	57.417400061438	0.002686001
1	65044	57.418864061438	0.004150001
1	65385	57.554421621674	0.002486001
1	65444	57.555885621674	0.003950001
1	65794	58.296651421776	0.002286001
1	65970	58.301383421776	0.007018001
1	66194	58.327516120161	0.002306001
1	66253	58.329240120161	0.004030001
1	66599	58.354262890834	0.002006001
1	66656	58.356046890834	0.003790001
1	67000	58.462216391384	0.001926001
1	67174	58.466908391384	0.006618001
1	67399	58.523233122731	0.001986001
1	67574	58.528525122731	0.007278001
1	67791	58.669908931818	0.002726001
1	67850	58.671412931818	0.004230001
1	68191	58.683807930475	0.002186001
1	68248	58.685311930475	0.003690001
1	68582	58.794343869122	0.001906001
1	68752	58.799235869122	0.006798001
1	68977	58.813985148114	0.002126001
1	69152	58.818717148114	0.006858001
1	69382	58.864742632759	0.002146001
1	69441	58.866466632759	0.003870001
1	69780	58.894720594188	0.002146001
1	69897	58.897708594188	0.005134001
1	70178	58.927892381506	0.001946001
1	70349	58.932844381506	0.006898001
1	70573	58.950390070992	0.002166001
1	70747	58.955562070992	0.007338001
1	70968	58.971968746989	0.001926001
1	71138	58.977140746989	0.007098001
1	71371	59.226544543133	0.001786001
1	71545	59.231956543133	0.007198001
1	71769	59.33971200375	0.002246001
1	71829	59.34139600375	0.003930001
1	72150	59.588130754694	0.001186
1	72324	59.593522754694	0.006578
1	72549	59.656809629847	0.002006001
1	72609	59.658573629847	0.003770001
1	72948	59.728973039338	0.002146001
1	73007	59.730537039338	0.003710001
1	73349	59.784693033712	0.001926001
1	73466	59.787861033712	0.005094001
1	73750	59.914650783127	0.001906001
1	73952	59.920348783127	0.001186
1	74011	59.921832783127	0.009088001
1	74185	59.926504783127	0.007342
1	74522	59.941317245932	0.002166001
1	74581	59.942941245932	0.003790001
1	74897	59.951307245932	0.001186
1	75072	59.955899245932	0.005778
1	75309	60.012519556476	0.002326001
1	75508	60.019411557476	0.009218002
1	75727	60.09718368386	0.001966001
1	75897	60.10213568386	0.006918001
1	76123	60.143743571085	0.001946001
1	76183	60.145547571085	0.003750001
1	76525	60.306106529754	0.002066001
1	76584	60.307630529754	0.003590001
1	76948	60.338165641463	0.003528
1	77007	60.339669641463	0.005032
1	77125	60.342757641463	0.006758
1	77243	60.346025641463	0.010026
1	77698	60.518876814917	0.001806001
1	77758	60.520860814917	0.003790001
1	78096	60.598639708291	0.002366001
1	78155	60.600283708291	0.004010001